============================== echo of input deck ==============================
echo

memory global 40 mb stack 23 mb heap 5 mb

geometry units angstrom noautosym nocenter
O  0.00197082 0.0012463 -0.00298048
H  -0.0432066 0.769363 -0.596119
H  0.0119282 -0.789143 -0.528177
end

scf
 vectors input nwchem_lammps.movecs
end

dft
 vectors input nwchem_lammps.movecs
end

basis
  O library 6-31g*
  H library 6-31g*
end

scf
 maxiter 100
end

#dft
# xc b3lyp
#end

task scf gradient
#task dft gradient
================================================================================

 Output coordinates in angstroms (scale by  1.889725989 to convert to a.u.)

  No.       Tag          Charge          X              Y              Z
 ---- ---------------- ---------- -------------- -------------- --------------
    1 O                    8.0000     0.00197082     0.00124630    -0.00298048
    2 H                    1.0000    -0.04320660     0.76936300    -0.59611900
    3 H                    1.0000     0.01192820    -0.78914300    -0.52817700

         Total SCF energy =    -76.009762913030

 Vector    2  Occ=2.000000D+00  E=-1.336749D+00

 Vector    3  Occ=2.000000D+00  E=-7.127948D-01

 Vector    4  Occ=2.000000D+00  E=-5.617306D-01

 Vector    5  Occ=2.000000D+00  E=-4.959173D-01

 Vector    6  Occ=0.000000D+00  E= 2.103822D-01

 Vector    7  Occ=0.000000D+00  E= 3.037943D-01

 Vector    8  Occ=0.000000D+00  E= 1.040852D+00

 Vector    9  Occ=0.000000D+00  E= 1.120172D+00

 Vector   10  Occ=0.000000D+00  E= 1.160603D+00

 Vector   11  Occ=0.000000D+00  E= 1.169054D+00

 Vector   12  Occ=0.000000D+00  E= 1.384034D+00

 Vector   13  Occ=0.000000D+00  E= 1.419205D+00

 Vector   14  Occ=0.000000D+00  E= 2.031234D+00

 Vector   15  Occ=0.000000D+00  E= 2.033369D+00

       Multipole analysis of the density wrt the origin
       ------------------------------------------------

     L   x y z        total         open         nuclear
     -   - - -        -----         ----         -------
     0   0 0 0     -0.000000      0.000000     10.000000

     1   1 0 0     -0.026417      0.000000     -0.029313
     1   0 1 0     -0.023604      0.000000     -0.018537
     1   0 0 1     -0.846090      0.000000     -2.169670

     2   2 0 0     -5.373227      0.000000      0.007286
     2   1 1 0     -0.085617      0.000000     -0.152252
     2   1 0 1      0.038215      0.000000      0.069311
     2   0 2 0     -2.927589      0.000000      4.337695
     2   0 1 1     -0.071410      0.000000     -0.149465

 Total times  cpu:        0.1s     wall:        0.2s
