============================== echo of input deck ==============================
echo

memory global 40 mb stack 23 mb heap 5 mb

geometry units angstrom noautosym nocenter
O  -0.00836667 0.0010006 0.0866404
H  0.0968795 0.837453 -0.346117
H  0.0114839 -0.638453 -0.612122
end

scf
 vectors input nwchem_lammps.movecs
end

dft
 vectors input nwchem_lammps.movecs
end

basis
  O library 6-31g*
  H library 6-31g*
end

scf
 maxiter 100
end

#dft
# xc b3lyp
#end

task scf gradient
#task dft gradient
================================================================================

 Output coordinates in angstroms (scale by  1.889725989 to convert to a.u.)

  No.       Tag          Charge          X              Y              Z
 ---- ---------------- ---------- -------------- -------------- --------------
    1 O                    8.0000    -0.00836667     0.00100060     0.08664040
    2 H                    1.0000     0.09687950     0.83745300    -0.34611700
    3 H                    1.0000     0.01148390    -0.63845300    -0.61212200

         Total SCF energy =    -76.010735003510

 Vector    2  Occ=2.000000D+00  E=-1.346587D+00

 Vector    3  Occ=2.000000D+00  E=-7.129747D-01

 Vector    4  Occ=2.000000D+00  E=-5.720760D-01

 Vector    5  Occ=2.000000D+00  E=-4.984552D-01

 Vector    6  Occ=0.000000D+00  E= 2.128732D-01

 Vector    7  Occ=0.000000D+00  E= 3.067764D-01

 Vector    8  Occ=0.000000D+00  E= 1.028607D+00

 Vector    9  Occ=0.000000D+00  E= 1.133833D+00

 Vector   10  Occ=0.000000D+00  E= 1.167849D+00

 Vector   11  Occ=0.000000D+00  E= 1.180721D+00

 Vector   12  Occ=0.000000D+00  E= 1.384514D+00

 Vector   13  Occ=0.000000D+00  E= 1.433397D+00

 Vector   14  Occ=0.000000D+00  E= 2.018721D+00

 Vector   15  Occ=0.000000D+00  E= 2.031133D+00

       Multipole analysis of the density wrt the origin
       ------------------------------------------------

     L   x y z        total         open         nuclear
     -   - - -        -----         ----         -------
     0   0 0 0     -0.000000      0.000000     10.000000

     1   1 0 0      0.094145      0.000000      0.078291
     1   0 1 0      0.148179      0.000000      0.391182
     1   0 0 1     -0.851621      0.000000     -0.500996

     2   2 0 0     -5.338111      0.000000      0.035987
     2   1 1 0      0.149191      0.000000      0.263306
     2   1 0 1     -0.084723      0.000000     -0.165556
     2   0 2 0     -3.114464      0.000000      3.960160
     2   0 1 1      0.205130      0.000000      0.362991

 Total times  cpu:        0.1s     wall:        0.1s
